;GENERATED BY LigParGen Server
; Jorgensen Lab @ Yale University 
;
[ atomtypes ]
  ec_802  O802    15.9990     0.000    A    2.90000E-01   5.85760E-01
  ec_809  H809     1.0080     0.000    A    2.50000E-01   1.25520E-01
  ec_806  H806     1.0080     0.000    A    2.50000E-01   1.25520E-01
  ec_803  C803    12.0110     0.000    A    3.50000E-01   2.76144E-01
  ec_800  O800    15.9990     0.000    A    2.96000E-01   8.78640E-01
  ec_807  H807     1.0080     0.000    A    2.50000E-01   1.25520E-01
  ec_805  O805    15.9990     0.000    A    2.90000E-01   5.85760E-01
  ec_808  H808     1.0080     0.000    A    2.50000E-01   1.25520E-01
  ec_801  C801    12.0110     0.000    A    3.55000E-01   2.92880E-01
  ec_804  C804    12.0110     0.000    A    3.50000E-01   2.76144E-01


