
;
; GENERATED BY LigParGen Server
; Jorgensen Lab @ Yale University 
;
[ moleculetype ]
; Name               nrexcl
EC                   3
[ atoms ]
;   nr       type  resnr residue  atom   cgnr     charge       mass  
     1   ec_800      1    EC   O00      1    -0.666442    15.9990 
     2   ec_801      1    EC   C01      1     0.944123    12.0110 
     3   ec_802      1    EC   O02      1    -0.418360    15.9990 
     4   ec_803      1    EC   C03      1     0.102850    12.0110 
     5   ec_804      1    EC   C04      1     0.098847    12.0110 
     6   ec_805      1    EC   O05      1    -0.417742    15.9990 
     7   ec_806      1    EC   H06      1     0.088689     1.0080 
     8   ec_807      1    EC   H07      1     0.088692     1.0080 
     9   ec_808      1    EC   H08      1     0.089670     1.0080 
    10   ec_809      1    EC   H09      1     0.089674     1.0080 
[ bonds ]
    2     1     1      0.1229 476976.000
    3     2     1      0.1327 179075.200
    4     3     1      0.1410 267776.000
    5     4     1      0.1529 224262.400
    6     2     1      0.1327 179075.200
    7     4     1      0.1090 284512.000
    8     4     1      0.1090 284512.000
    9     5     1      0.1090 284512.000
   10     5     1      0.1090 284512.000
    6     5     1      0.1410 267776.000

[ angles ]
;  ai    aj    ak funct            c0            c1            c2            c3 
    1     2     3     1    123.400    694.544
    2     3     4     1    116.900    694.544
    3     4     5     1    109.500    418.400
    1     2     6     1    123.400    694.544
    3     4     7     1    109.500    292.880
    3     4     8     1    109.500    292.880
    4     5     9     1    110.700    313.800
    4     5    10     1    110.700    313.800
    6     5     9     1    109.500    292.880
    2     6     5     1    116.900    694.544
    9     5    10     1    107.800    276.144
    7     4     8     1    107.800    276.144
    3     2     6     1    118.180    584.923
    4     5     6     1    109.500    418.400
    5     4     7     1    110.700    313.800
    6     5    10     1    109.500    292.880
    5     4     8     1    110.700    313.800

[ dihedrals ]
; IMPROPER DIHEDRAL ANGLES 
;  ai    aj    ak    al funct            c0            c1            c2            c3            c4            c5
     6     2     1     3    4        180.000     43.932     2  

[ dihedrals ]
; PROPER DIHEDRAL ANGLES
;  ai    aj    ak    al funct            c0            c1            c2            c3            c4            c5
    5    4    3    2        3      -2.197   5.201   0.527  -3.531  -0.000   0.000
    4    5    6    2        3      -2.197   5.201   0.527  -3.531  -0.000   0.000
    4    3    2    1        3      21.439   0.000  -21.439  -0.000  -0.000   0.000
    5    6    2    1        3      21.439   0.000  -21.439  -0.000  -0.000   0.000
    5    6    2    3        3      31.206  -9.768  -21.439  -0.000  -0.000   0.000
   10    5    4    7        3       0.628   1.883   0.000  -2.510  -0.000   0.000
    9    5    4    8        3       0.628   1.883   0.000  -2.510  -0.000   0.000
    9    5    4    7        3       0.628   1.883   0.000  -2.510  -0.000   0.000
   10    5    4    8        3       0.628   1.883   0.000  -2.510  -0.000   0.000
    9    5    4    3        3       0.979   2.937   0.000  -3.916  -0.000   0.000
    7    4    5    6        3       0.979   2.937   0.000  -3.916  -0.000   0.000
   10    5    4    3        3       0.979   2.937   0.000  -3.916  -0.000   0.000
    8    4    5    6        3       0.979   2.937   0.000  -3.916  -0.000   0.000
   10    5    6    2        3       0.414   1.243   0.000  -1.657  -0.000   0.000
    7    4    3    2        3       0.414   1.243   0.000  -1.657  -0.000   0.000
    8    4    3    2        3       0.414   1.243   0.000  -1.657  -0.000   0.000
    9    5    6    2        3       0.414   1.243   0.000  -1.657  -0.000   0.000
    6    2    3    4        3      31.206  -9.768  -21.439  -0.000  -0.000   0.000
    6    5    4    3        3      -1.151   1.151   0.000  -0.000  -0.000   0.000

[ pairs ]
     1     4    1
     1     5    1
     2     7    1
     2     8    1
     2     9    1
     3     9    1
     2    10    1
     6     7    1
     3    10    1
     6     8    1
     7     9    1
     8     9    1
     7    10    1
     8    10    1
