
;
; GENERATED BY LigParGen Server
; Jorgensen Lab @ Yale University 
;
[ moleculetype ]
; Name               nrexcl
EMC                   3
[ atoms ]
;   nr       type  resnr residue  atom   cgnr     charge       mass  
     1   emc_800      1    EMC   C00      1    -0.444864    12.0110 
     2   emc_801      1    EMC   C01      1     0.505117    12.0110 
     3   emc_802      1    EMC   O02      1    -0.600845    15.9990 
     4   emc_803      1    EMC   C03      1     1.101036    12.0110 
     5   emc_804      1    EMC   O04      1    -0.711144    15.9990 
     6   emc_805      1    EMC   H05      1     0.108183     1.0080 
     7   emc_806      1    EMC   H06      1     0.132447     1.0080 
     8   emc_807      1    EMC   H07      1     0.131844     1.0080 
     9   emc_808      1    EMC   H08      1    -0.019549     1.0080 
    10   emc_809      1    EMC   H09      1    -0.019330     1.0080 
    11   emc_810      1    EMC   O0A      1    -0.410374    15.9990 
    12   emc_811      1    EMC   C0B      1    -0.164561    12.0110 
    13   emc_812      1    EMC   H0C      1     0.153290     1.0080 
    14   emc_813      1    EMC   H0D      1     0.119523     1.0080 
    15   emc_814      1    EMC   H0E      1     0.119228     1.0080 
[ bonds ]
    2     1     1      0.1529 224262.400
    3     2     1      0.1410 267776.000
    4     3     1      0.1327 179075.200
    5     4     1      0.1229 476976.000
    6     1     1      0.1090 284512.000
    7     1     1      0.1090 284512.000
    8     1     1      0.1090 284512.000
    9     2     1      0.1090 284512.000
   10     2     1      0.1090 284512.000
   11     4     1      0.1327 179075.200
   12    11     1      0.1410 267776.000
   13    12     1      0.1090 284512.000
   14    12     1      0.1090 284512.000
   15    12     1      0.1090 284512.000

[ angles ]
;  ai    aj    ak funct            c0            c1            c2            c3 
    1     2     3     1    109.500    418.400
    2     3     4     1    116.900    694.544
    3     4     5     1    123.400    694.544
    2     1     6     1    110.700    313.800
    2     1     7     1    110.700    313.800
    2     1     8     1    110.700    313.800
    1     2     9     1    110.700    313.800
    1     2    10     1    110.700    313.800
    3     4    11     1    118.180    584.923
    4    11    12     1    116.900    694.544
   11    12    13     1    109.500    292.880
   11    12    14     1    109.500    292.880
   11    12    15     1    109.500    292.880
   13    12    14     1    107.800    276.144
    9     2    10     1    107.800    276.144
   13    12    15     1    107.800    276.144
   14    12    15     1    107.800    276.144
    5     4    11     1    123.400    694.544
    3     2     9     1    109.500    292.880
    7     1     8     1    107.800    276.144
    6     1     7     1    107.800    276.144
    6     1     8     1    107.800    276.144
    3     2    10     1    109.500    292.880

[ dihedrals ]
; IMPROPER DIHEDRAL ANGLES 
;  ai    aj    ak    al funct            c0            c1            c2            c3            c4            c5
    11     4     3     5    4        180.000     43.932     2  

[ dihedrals ]
; PROPER DIHEDRAL ANGLES
;  ai    aj    ak    al funct            c0            c1            c2            c3            c4            c5
    4    3    2    1        3      -2.197   5.201   0.527  -3.531  -0.000   0.000
   12   11    4    5        3      21.439   0.000  -21.439  -0.000  -0.000   0.000
   12   11    4    3        3      31.206  -9.768  -21.439  -0.000  -0.000   0.000
   10    2    1    6        3       0.628   1.883   0.000  -2.510  -0.000   0.000
    9    2    1    7        3       0.628   1.883   0.000  -2.510  -0.000   0.000
   10    2    1    7        3       0.628   1.883   0.000  -2.510  -0.000   0.000
    9    2    1    8        3       0.628   1.883   0.000  -2.510  -0.000   0.000
    9    2    1    6        3       0.628   1.883   0.000  -2.510  -0.000   0.000
   10    2    1    8        3       0.628   1.883   0.000  -2.510  -0.000   0.000
    8    1    2    3        3       0.979   2.937   0.000  -3.916  -0.000   0.000
    7    1    2    3        3       0.979   2.937   0.000  -3.916  -0.000   0.000
    6    1    2    3        3       0.979   2.937   0.000  -3.916  -0.000   0.000
   14   12   11    4        3       0.414   1.243   0.000  -1.657  -0.000   0.000
   10    2    3    4        3       0.414   1.243   0.000  -1.657  -0.000   0.000
   13   12   11    4        3       0.414   1.243   0.000  -1.657  -0.000   0.000
    9    2    3    4        3       0.414   1.243   0.000  -1.657  -0.000   0.000
   15   12   11    4        3       0.414   1.243   0.000  -1.657  -0.000   0.000
    5    4    3    2        3      21.439   0.000  -21.439  -0.000  -0.000   0.000
   11    4    3    2        3      31.206  -9.768  -21.439  -0.000  -0.000   0.000

[ pairs ]
     1     4    1
     2     5    1
     3     6    1
     3     7    1
     3     8    1
     4     9    1
     2    11    1
     4    10    1
     6     9    1
     3    12    1
     7     9    1
     6    10    1
     8     9    1
     7    10    1
     5    12    1
     4    13    1
     8    10    1
     4    14    1
     4    15    1
