
;
; GENERATED BY LigParGen Server
; Jorgensen Lab @ Yale University 
;
[ atomtypes ]
  emc_802  O802    15.9990     0.000    A    2.90000E-01   5.85760E-01
  emc_811  C811    12.0110     0.000    A    3.50000E-01   2.76144E-01
  emc_801  C801    12.0110     0.000    A    3.50000E-01   2.76144E-01
  emc_803  C803    12.0110     0.000    A    3.55000E-01   2.92880E-01
  emc_807  H807     1.0080     0.000    A    2.50000E-01   1.25520E-01
  emc_814  H814     1.0080     0.000    A    2.50000E-01   1.25520E-01
  emc_806  H806     1.0080     0.000    A    2.50000E-01   1.25520E-01
  emc_810  O810    15.9990     0.000    A    2.90000E-01   5.85760E-01
  emc_812  H812     1.0080     0.000    A    2.50000E-01   1.25520E-01
  emc_809  H809     1.0080     0.000    A    2.50000E-01   1.25520E-01
  emc_805  H805     1.0080     0.000    A    2.50000E-01   1.25520E-01
  emc_804  O804    15.9990     0.000    A    2.96000E-01   8.78640E-01
  emc_808  H808     1.0080     0.000    A    2.50000E-01   1.25520E-01
  emc_813  H813     1.0080     0.000    A    2.50000E-01   1.25520E-01
  emc_800  C800    12.0110     0.000    A    3.50000E-01   2.76144E-01



 
