; Molecular itp file generated with DLPGEN                                                
; Developed by Carlos Bernardes.                                                          
; http://webpages.fc.ul.pt/~cebernardes/                                                  
                                                                                          
                                                                       
; References for the OPLS-AA force field:                                                 
[ moleculetype ]                                                                          
; Name              nrexcl                                                                
fsi                      3                                                                
                                                                                          
[ atoms ]                                                                                 
;       nr      type     resnr   residue      atom      cgnr    charge      mass          
         1      NBT          1   fsi          NBT          1  -0.52800  14.00700          
         2      SBT          1   fsi          SBT          2   0.81600  32.06600          
         3      FSIn         1   fsi          FSIn         3  -0.10400  18.99800          
         4      OBTn         1   fsi          OBTn         4  -0.42400  15.99900          
         5      OBTn         1   fsi          OBTn         5  -0.42400  15.99900          
         6      SBT          1   fsi          SBT          6   0.81600  32.06600          
         7      OBTn         1   fsi          OBTn         7  -0.42400  15.99900          
         8      OBTn         1   fsi          OBTn         8  -0.42400  15.99900          
         9      FSIn         1   fsi          FSIn         9  -0.10400  18.99800          
                                                                                          
                                                                                          
                                                                                          
                                                                                          
[ bonds ]                                                                                 
;    at1     at2   funct          bo         kb                                           
       1       2       1    0.157000  313700.00                                           
       1       6       1    0.157000  313700.00                                           
       2       3       1    0.157500  187900.00                                           
       2       4       1    0.143700  533100.00                                           
       2       5       1    0.143700  533100.00                                           
       6       7       1    0.143700  533100.00                                           
       6       8       1    0.143700  533100.00                                           
       6       9       1    0.157500  187900.00                                           
                                                                                          
                                                                                          
[ angles ]                                                                                
;    at1     at2     at3   funct        th0        cth                                    
       6       1       2       1  125.60000  671.00000                                    
       4       2       3       1  104.20000 1077.00000                                    
       5       2       3       1  104.20000 1077.00000                                    
       3       2       1       1  103.00000  902.00000                                    
       5       2       4       1  118.50000  969.00000                                    
       4       2       1       1  113.60000  789.00000                                    
       5       2       1       1  113.60000  789.00000                                    
       8       6       7       1  118.50000  969.00000                                    
       9       6       7       1  104.20000 1077.00000                                    
       7       6       1       1  113.60000  789.00000                                    
       9       6       8       1  104.20000 1077.00000                                    
       8       6       1       1  113.60000  789.00000                                    
       9       6       1       1  103.00000  902.00000                                    
                                                                                          
                                                                                          
[ dihedrals ]                                                                             
;    at1     at2     at3     at4   funct         c1         c2         c3         c4      
       3       2       1       6       5   11.44500  -15.18600   -3.21200    0.00000      
       4       2       1       6       5    0.00000    0.00000   -0.01500    0.00000      
       5       2       1       6       5    0.00000    0.00000   -0.01500    0.00000      
       7       6       1       2       5    0.00000    0.00000   -0.01500    0.00000      
       8       6       1       2       5    0.00000    0.00000   -0.01500    0.00000      
       9       6       1       2       5   11.44500  -15.18600   -3.21200    0.00000      
                                                                                          
                                                                                          
; pairs for 1-4 interactions                                                              
                                                                                          
[ pairs ]                                                                                 
;    at1     at2     funct                                                                
       3       6       1                                                                  
       4       6       1                                                                  
       5       6       1                                                                  
       7       2       1                                                                  
       8       2       1                                                                  
       9       2       1                                                                  
                                                                                          
