;Este FF foi modificado com os parametros Sigma e Epsilon do Padua.

[ atomtypes ]
; name      at.num  mass     charge ptype  sigma      epsilon
;=======================
;   FSI-
;=======================
NBT            7  14.00700  0.0000       A   0.32500   0.71100
SBT           16  32.06600  0.0000       A   0.35500   1.04600
FSIn           9  18.99800  0.0000       A   0.31180   0.25540
OBTn           8  15.99900  0.0000       A   0.31500   0.83736

