[ atomtypes ]
; name  at.nr     mass   charge  ptype  sigma        epsilon
; TEP
P00        15  30.9740   2.6407      A  3.74000e-01  8.36800e-01
O01         8  15.9990  -0.7489      A  2.90000e-01  5.85760e-01
O02         8  15.9990  -0.7709      A  2.90000e-01  5.85760e-01
O03         8  15.9990  -0.7121      A  2.90000e-01  5.85760e-01
O04         8  15.9990  -1.1195      A  2.96000e-01  8.78640e-01
C05         6  12.0110  -0.0104      A  3.50000e-01  2.76140e-01
C06         6  12.0110  -0.0080      A  3.50000e-01  2.76140e-01
C07         6  12.0110  -0.0361      A  3.50000e-01  2.76140e-01
C08         6  12.0110  -0.2467      A  3.50000e-01  2.76140e-01
C09         6  12.0110  -0.2465      A  3.50000e-01  2.76140e-01
C0A         6  12.0110  -0.2439      A  3.50000e-01  2.76140e-01
H0B         1   1.0080   0.1051      A  2.50000e-01  1.25520e-01
H0C         1   1.0080   0.1051      A  2.50000e-01  1.25520e-01
H0D         1   1.0080   0.1043      A  2.50000e-01  1.25520e-01
H0E         1   1.0080   0.1043      A  2.50000e-01  1.25520e-01
H0F         1   1.0080   0.0899      A  2.50000e-01  1.25520e-01
H0G         1   1.0080   0.0899      A  2.50000e-01  1.25520e-01
H0H         1   1.0080   0.0991      A  2.50000e-01  1.25520e-01
H0I         1   1.0080   0.0991      A  2.50000e-01  1.25520e-01
H0J         1   1.0080   0.0991      A  2.50000e-01  1.25520e-01
H0K         1   1.0080   0.0993      A  2.50000e-01  1.25520e-01
H0M         1   1.0080   0.0993      A  2.50000e-01  1.25520e-01
H0N         1   1.0080   0.0993      A  2.50000e-01  1.25520e-01
H0O         1   1.0080   0.1028      A  2.50000e-01  1.25520e-01
H0P         1   1.0080   0.1028      A  2.50000e-01  1.25520e-01
H0Q         1   1.0080   0.1029      A  2.50000e-01  1.25520e-01
;
