#include "../itp/ff.itp"

; Include topology
#include "../itp/EC_corr.itp"
#include "../itp/TEP-RESP.itp"
#include "../itp/EMC_corr.itp"

#include "../itp/Na_scale0.8.itp"
#include "../itp/fsi_OPLS0.8.itp"


[ system ]
TEP_40

[ molecules ]
; Compound        nmols
EC		250 
TEP             256
EMC		494	
Na		111	
fsi		111
