#include "../itp/ff.itp"

; Include topology
#include "../itp/EC_corr.itp"
#include "../itp/TEP-RESP.itp"
#include "../itp/EMC_corr.itp"

#include "../itp/Na_scale0.8.itp"
#include "../itp/fsi_OPLS0.8.itp"


[ system ]
TEP_30

[ molecules ]
; Compound        nmols
EC		275 
TEP		181
EMC		543	
Na		105	
fsi		105
