#include "../itp/ff.itp"

; Include topology
#include "../itp/EC_GMX.itp"
#include "../itp/TEP_GMX.itp"
#include "../itp/EMC_GMX.itp"

#include "../itp/Na_scale0.8.itp"
#include "../itp/fsi_GMX0.8.itp"


[ system ]
TEP_20

[ molecules ]
; Compound        nmols
EC		298 
TEP		114
EMC		588	
Na		100	
fsi		100
