#include "../itp/ff.itp"

; Include topology
#include "../itp/EC_GMX.itp"
#include "../itp/TEP_GMX.itp"
#include "../itp/EMC_GMX.itp"

#include "../itp/Na_scale0.8.itp"
#include "../itp/fsi_GMX0.8.itp"


[ system ]
TEP_100

[ molecules ]
; Compound        nmols
;EC		 
TEP		1000
;EMC			
Na		170	
fsi		170
